
Host: LaComputadora

Timers On : Thu Dec  5 14:34:36 2024
Timers Off: Thu Dec  5 14:34:44 2024

Wall Time:        7.54 seconds

                                                       Time (seconds)
Module                                       User      System        Wall        Calls

--------------------------------------------------------------------------------------

**************************************************************************************

Host: LaComputadora

Timers On : Thu Dec  5 14:34:47 2024
Timers Off: Thu Dec  5 14:34:51 2024

Wall Time:        3.65 seconds

                                                       Time (seconds)
Module                                       User      System        Wall        Calls

--------------------------------------------------------------------------------------

**************************************************************************************

Host: LaComputadora

Timers On : Thu Dec  5 14:35:31 2024
Timers Off: Thu Dec  5 14:35:34 2024

Wall Time:        3.70 seconds

                                                       Time (seconds)
Module                                       User      System        Wall        Calls

--------------------------------------------------------------------------------------

**************************************************************************************

Host: LaComputadora

Timers On : Thu Dec  5 14:47:27 2024
Timers Off: Thu Dec  5 14:47:35 2024

Wall Time:        7.82 seconds

                                                       Time (seconds)
Module                                       User      System        Wall        Calls

--------------------------------------------------------------------------------------

**************************************************************************************

Host: LaComputadora

Timers On : Thu Dec  5 14:48:18 2024
Timers Off: Thu Dec  5 14:48:23 2024

Wall Time:        4.65 seconds

                                                       Time (seconds)
Module                                       User      System        Wall        Calls

--------------------------------------------------------------------------------------

**************************************************************************************

Host: LaComputadora

Timers On : Thu Dec  5 15:01:33 2024
Timers Off: Thu Dec  5 15:01:45 2024

Wall Time:       11.77 seconds

                                                       Time (seconds)
Module                                       User      System        Wall        Calls

--------------------------------------------------------------------------------------

**************************************************************************************

Host: LaComputadora

Timers On : Thu Dec  5 15:01:46 2024
Timers Off: Thu Dec  5 15:01:50 2024

Wall Time:        4.19 seconds

                                                       Time (seconds)
Module                                       User      System        Wall        Calls

--------------------------------------------------------------------------------------

**************************************************************************************

Host: LaComputadora

Timers On : Sun Dec  8 15:20:15 2024
Timers Off: Sun Dec  8 15:20:21 2024

Wall Time:        6.25 seconds

                                                       Time (seconds)
Module                                       User      System        Wall        Calls

--------------------------------------------------------------------------------------

**************************************************************************************

Host: LaComputadora

Timers On : Sun Dec  8 15:35:11 2024
Timers Off: Sun Dec  8 15:35:15 2024

Wall Time:        3.74 seconds

                                                       Time (seconds)
Module                                       User      System        Wall        Calls

--------------------------------------------------------------------------------------

**************************************************************************************

Host: LaComputadora

Timers On : Sun Dec  8 15:35:40 2024
Timers Off: Sun Dec  8 15:35:44 2024

Wall Time:        3.68 seconds

                                                       Time (seconds)
Module                                       User      System        Wall        Calls

--------------------------------------------------------------------------------------

**************************************************************************************

Host: LaComputadora

Timers On : Sun Dec  8 15:36:16 2024
Timers Off: Sun Dec  8 15:36:20 2024

Wall Time:        3.85 seconds

                                                       Time (seconds)
Module                                       User      System        Wall        Calls

--------------------------------------------------------------------------------------

**************************************************************************************

Host: LaComputadora

Timers On : Sun Dec  8 15:39:08 2024
Timers Off: Sun Dec  8 15:39:12 2024

Wall Time:        3.38 seconds

                                                       Time (seconds)
Module                                       User      System        Wall        Calls

--------------------------------------------------------------------------------------

**************************************************************************************

Host: LaComputadora

Timers On : Sun Dec  8 15:40:10 2024
Timers Off: Sun Dec  8 15:40:11 2024

Wall Time:        0.93 seconds

                                                       Time (seconds)
Module                                       User      System        Wall        Calls

--------------------------------------------------------------------------------------

**************************************************************************************

Host: LaComputadora

Timers On : Sun Dec  8 15:40:05 2024
Timers Off: Sun Dec  8 15:40:13 2024

Wall Time:        7.89 seconds

                                                       Time (seconds)
Module                                       User      System        Wall        Calls

--------------------------------------------------------------------------------------

**************************************************************************************

Host: LaComputadora

Timers On : Sun Dec  8 15:41:16 2024
Timers Off: Sun Dec  8 15:41:20 2024

Wall Time:        3.25 seconds

                                                       Time (seconds)
Module                                       User      System        Wall        Calls

--------------------------------------------------------------------------------------

**************************************************************************************

Host: LaComputadora

Timers On : Sun Dec  8 15:55:10 2024
Timers Off: Sun Dec  8 15:55:16 2024

Wall Time:        5.87 seconds

                                                       Time (seconds)
Module                                       User      System        Wall        Calls
DFH: sparsity prep                  :      0.000u      0.000s      0.045w      2 calls
Libint2ERI::Libint2ERI              :      0.000u      0.000s      0.052w     14 calls
DFH: initialize()                   :      0.000u      0.000s      0.100w      2 calls
DFH: AO Construction                :      0.000u      0.000s      0.004w      2 calls
DFH: AO-Met. Contraction            :      0.000u      0.000s      0.001w      2 calls
HF: Form core H                     :      0.000u      0.000s      0.013w      2 calls
HF: Form S/X                        :      0.000u      0.000s      0.002w      2 calls
HF: Guess                           :      0.000u      0.000s      0.109w      2 calls
SAD Guess                           :      0.000u      0.000s      0.107w      1 calls
HF: Form G                          :      0.000u      0.000s      0.004w     21 calls
JK: D                               :      0.000u      0.000s      0.000w     21 calls
JK: USO2AO                          :      0.000u      0.000s      0.000w     21 calls
JK: JK                              :      0.000u      0.000s      0.003w     21 calls
DFH: compute_JK()                   :      0.000u      0.000s      0.003w     21 calls
DFH: Grabbing AOs                   :      0.000u      0.000s      0.000w     21 calls
DFH: compute_J                      :      0.000u      0.000s      0.001w     21 calls
DFH: compute_K                      :      0.000u      0.000s      0.001w     21 calls
JK: AO2USO                          :      0.000u      0.000s      0.000w     21 calls
HF: Form F                          :      0.000u      0.000s      0.000w     21 calls
HF: Form D                          :      0.000u      0.000s      0.000w     21 calls
HF: DIIS                            :      0.000u      0.000s      0.958w     20 calls
HF: Form C                          :      0.000u      0.000s      0.009w     20 calls
Grad: V T Perturb                   :      0.000u      0.000s      0.006w      2 calls
Grad: S                             :      0.000u      0.000s      0.001w      2 calls
Grad: JK                            :      0.000u      0.000s      0.055w      2 calls
JKGrad: Amn                         :      0.000u      0.000s      0.006w      2 calls
JKGrad: Awmn                        :      0.000u      0.000s      0.000w      2 calls
JKGrad: AB                          :      0.000u      0.000s      0.006w      2 calls
JKGrad: UV                          :      0.000u      0.000s      0.000w      2 calls
JKGrad: ABx                         :      0.000u      0.000s      0.006w      2 calls
JKGrad: Amnx                        :      0.000u      0.000s      0.024w      2 calls
Grad: XC                            :      0.000u      0.000s      0.000w      2 calls

--------------------------------------------------------------------------------------
DFH: sparsity prep                  :      0.000u      0.000s      0.045w      2 calls
| Libint2ERI::Libint2ERI            :      0.000u      0.000s      0.043w      2 calls
DFH: initialize()                   :      0.000u      0.000s      0.100w      2 calls
| Libint2ERI::Libint2ERI            :      0.000u      0.000s      0.003w      4 calls
| DFH: AO Construction              :      0.000u      0.000s      0.004w      2 calls
| DFH: AO-Met. Contraction          :      0.000u      0.000s      0.001w      2 calls
HF: Form core H                     :      0.000u      0.000s      0.013w      2 calls
HF: Form S/X                        :      0.000u      0.000s      0.002w      2 calls
HF: Guess                           :      0.000u      0.000s      0.109w      2 calls
| SAD Guess                         :      0.000u      0.000s      0.107w      1 calls
HF: Form G                          :      0.000u      0.000s      0.004w     21 calls
| JK: D                             :      0.000u      0.000s      0.000w     21 calls
| JK: USO2AO                        :      0.000u      0.000s      0.000w     21 calls
| JK: JK                            :      0.000u      0.000s      0.003w     21 calls
| | DFH: compute_JK()               :      0.000u      0.000s      0.003w     21 calls
| | | DFH: Grabbing AOs             :      0.000u      0.000s      0.000w     21 calls
| | | DFH: compute_J                :      0.000u      0.000s      0.001w     21 calls
| | | DFH: compute_K                :      0.000u      0.000s      0.001w     21 calls
| JK: AO2USO                        :      0.000u      0.000s      0.000w     21 calls
HF: Form F                          :      0.000u      0.000s      0.000w     21 calls
HF: Form D                          :      0.000u      0.000s      0.000w     21 calls
HF: DIIS                            :      0.000u      0.000s      0.958w     20 calls
HF: Form C                          :      0.000u      0.000s      0.009w     20 calls
Grad: V T Perturb                   :      0.000u      0.000s      0.006w      2 calls
Grad: S                             :      0.000u      0.000s      0.001w      2 calls
Grad: JK                            :      0.000u      0.000s      0.055w      2 calls
| JKGrad: Amn                       :      0.000u      0.000s      0.006w      2 calls
| | Libint2ERI::Libint2ERI          :      0.000u      0.000s      0.002w      2 calls
| JKGrad: Awmn                      :      0.000u      0.000s      0.000w      2 calls
| JKGrad: AB                        :      0.000u      0.000s      0.006w      2 calls
| | Libint2ERI::Libint2ERI          :      0.000u      0.000s      0.000w      2 calls
| JKGrad: UV                        :      0.000u      0.000s      0.000w      2 calls
| JKGrad: ABx                       :      0.000u      0.000s      0.006w      2 calls
| | Libint2ERI::Libint2ERI          :      0.000u      0.000s      0.000w      2 calls
| JKGrad: Amnx                      :      0.000u      0.000s      0.024w      2 calls
| | Libint2ERI::Libint2ERI          :      0.000u      0.000s      0.004w      2 calls
Grad: XC                            :      0.000u      0.000s      0.000w      2 calls

**************************************************************************************

Host: LaComputadora

Timers On : Sun Dec  8 16:01:22 2024
Timers Off: Sun Dec  8 16:01:26 2024

Wall Time:        3.30 seconds

                                                       Time (seconds)
Module                                       User      System        Wall        Calls

--------------------------------------------------------------------------------------

**************************************************************************************

Host: LaComputadora

Timers On : Sun Dec  8 16:05:09 2024
Timers Off: Sun Dec  8 16:05:15 2024

Wall Time:        5.66 seconds

                                                       Time (seconds)
Module                                       User      System        Wall        Calls
DFH: sparsity prep                  :      0.000u      0.000s      0.007w      2 calls
Libint2ERI::Libint2ERI              :      0.000u      0.000s      0.014w     14 calls
DFH: initialize()                   :      0.000u      0.000s      0.120w      2 calls
DFH: AO Construction                :      0.000u      0.000s      0.003w      2 calls
DFH: AO-Met. Contraction            :      0.000u      0.000s      0.002w      2 calls
HF: Form core H                     :      0.000u      0.000s      0.004w      2 calls
HF: Form S/X                        :      0.000u      0.000s      0.003w      2 calls
HF: Guess                           :      0.000u      0.000s      0.052w      2 calls
SAD Guess                           :      0.000u      0.000s      0.049w      1 calls
HF: Form G                          :      0.000u      0.000s      0.003w     21 calls
JK: D                               :      0.000u      0.000s      0.000w     21 calls
JK: USO2AO                          :      0.000u      0.000s      0.000w     21 calls
JK: JK                              :      0.000u      0.000s      0.002w     21 calls
DFH: compute_JK()                   :      0.000u      0.000s      0.002w     21 calls
DFH: Grabbing AOs                   :      0.000u      0.000s      0.000w     21 calls
DFH: compute_J                      :      0.000u      0.000s      0.001w     21 calls
DFH: compute_K                      :      0.000u      0.000s      0.001w     21 calls
JK: AO2USO                          :      0.000u      0.000s      0.000w     21 calls
HF: Form F                          :      0.000u      0.000s      0.000w     21 calls
HF: Form D                          :      0.000u      0.000s      0.000w     21 calls
HF: DIIS                            :      0.000u      0.000s      0.450w     20 calls
HF: Form C                          :      0.000u      0.000s      0.007w     20 calls
Grad: V T Perturb                   :      0.000u      0.000s      0.000w      2 calls
Grad: S                             :      0.000u      0.000s      0.000w      2 calls
Grad: JK                            :      0.000u      0.000s      0.044w      2 calls
JKGrad: Amn                         :      0.000u      0.000s      0.007w      2 calls
JKGrad: Awmn                        :      0.000u      0.000s      0.000w      2 calls
JKGrad: AB                          :      0.000u      0.000s      0.013w      2 calls
JKGrad: UV                          :      0.000u      0.000s      0.000w      2 calls
JKGrad: ABx                         :      0.000u      0.000s      0.004w      2 calls
JKGrad: Amnx                        :      0.000u      0.000s      0.012w      2 calls
Grad: XC                            :      0.000u      0.000s      0.000w      2 calls

--------------------------------------------------------------------------------------
DFH: sparsity prep                  :      0.000u      0.000s      0.007w      2 calls
| Libint2ERI::Libint2ERI            :      0.000u      0.000s      0.006w      2 calls
DFH: initialize()                   :      0.000u      0.000s      0.120w      2 calls
| Libint2ERI::Libint2ERI            :      0.000u      0.000s      0.002w      4 calls
| DFH: AO Construction              :      0.000u      0.000s      0.003w      2 calls
| DFH: AO-Met. Contraction          :      0.000u      0.000s      0.002w      2 calls
HF: Form core H                     :      0.000u      0.000s      0.004w      2 calls
HF: Form S/X                        :      0.000u      0.000s      0.003w      2 calls
HF: Guess                           :      0.000u      0.000s      0.052w      2 calls
| SAD Guess                         :      0.000u      0.000s      0.049w      1 calls
HF: Form G                          :      0.000u      0.000s      0.003w     21 calls
| JK: D                             :      0.000u      0.000s      0.000w     21 calls
| JK: USO2AO                        :      0.000u      0.000s      0.000w     21 calls
| JK: JK                            :      0.000u      0.000s      0.002w     21 calls
| | DFH: compute_JK()               :      0.000u      0.000s      0.002w     21 calls
| | | DFH: Grabbing AOs             :      0.000u      0.000s      0.000w     21 calls
| | | DFH: compute_J                :      0.000u      0.000s      0.001w     21 calls
| | | DFH: compute_K                :      0.000u      0.000s      0.001w     21 calls
| JK: AO2USO                        :      0.000u      0.000s      0.000w     21 calls
HF: Form F                          :      0.000u      0.000s      0.000w     21 calls
HF: Form D                          :      0.000u      0.000s      0.000w     21 calls
HF: DIIS                            :      0.000u      0.000s      0.450w     20 calls
HF: Form C                          :      0.000u      0.000s      0.007w     20 calls
Grad: V T Perturb                   :      0.000u      0.000s      0.000w      2 calls
Grad: S                             :      0.000u      0.000s      0.000w      2 calls
Grad: JK                            :      0.000u      0.000s      0.044w      2 calls
| JKGrad: Amn                       :      0.000u      0.000s      0.007w      2 calls
| | Libint2ERI::Libint2ERI          :      0.000u      0.000s      0.003w      2 calls
| JKGrad: Awmn                      :      0.000u      0.000s      0.000w      2 calls
| JKGrad: AB                        :      0.000u      0.000s      0.013w      2 calls
| | Libint2ERI::Libint2ERI          :      0.000u      0.000s      0.000w      2 calls
| JKGrad: UV                        :      0.000u      0.000s      0.000w      2 calls
| JKGrad: ABx                       :      0.000u      0.000s      0.004w      2 calls
| | Libint2ERI::Libint2ERI          :      0.000u      0.000s      0.000w      2 calls
| JKGrad: Amnx                      :      0.000u      0.000s      0.012w      2 calls
| | Libint2ERI::Libint2ERI          :      0.000u      0.000s      0.004w      2 calls
Grad: XC                            :      0.000u      0.000s      0.000w      2 calls

**************************************************************************************

Host: LaComputadora

Timers On : Sun Dec  8 16:07:58 2024
Timers Off: Sun Dec  8 16:08:01 2024

Wall Time:        2.89 seconds

                                                       Time (seconds)
Module                                       User      System        Wall        Calls

--------------------------------------------------------------------------------------

**************************************************************************************

Host: LaComputadora

Timers On : Sun Dec  8 16:10:17 2024
Timers Off: Sun Dec  8 16:10:22 2024

Wall Time:        4.85 seconds

                                                       Time (seconds)
Module                                       User      System        Wall        Calls

--------------------------------------------------------------------------------------

**************************************************************************************

Host: LaComputadora

Timers On : Sun Dec  8 16:10:39 2024
Timers Off: Sun Dec  8 16:10:39 2024

Wall Time:        0.66 seconds

                                                       Time (seconds)
Module                                       User      System        Wall        Calls

--------------------------------------------------------------------------------------

**************************************************************************************

Host: LaComputadora

Timers On : Sun Dec  8 16:10:32 2024
Timers Off: Sun Dec  8 16:10:47 2024

Wall Time:       15.30 seconds

                                                       Time (seconds)
Module                                       User      System        Wall        Calls
DFH: sparsity prep                  :      0.000u      0.000s      0.048w     17 calls
Libint2ERI::Libint2ERI              :      0.000u      0.000s      0.110w    119 calls
DFH: initialize()                   :      0.000u      0.000s      0.766w     17 calls
DFH: AO Construction                :      0.000u      0.000s      0.024w     17 calls
DFH: AO-Met. Contraction            :      0.000u      0.000s      0.012w     17 calls
HF: Form core H                     :      0.000u      0.000s      0.153w     17 calls
HF: Form S/X                        :      0.000u      0.000s      0.009w     17 calls
HF: Guess                           :      0.000u      0.000s      1.055w     17 calls
SAD Guess                           :      0.000u      0.000s      1.042w     14 calls
HF: Form G                          :      0.000u      0.000s      0.020w    179 calls
JK: D                               :      0.000u      0.000s      0.001w    179 calls
JK: USO2AO                          :      0.000u      0.000s      0.000w    179 calls
JK: JK                              :      0.000u      0.000s      0.017w    179 calls
DFH: compute_JK()                   :      0.000u      0.000s      0.017w    179 calls
DFH: Grabbing AOs                   :      0.000u      0.000s      0.000w    179 calls
DFH: compute_J                      :      0.000u      0.000s      0.005w    179 calls
DFH: compute_K                      :      0.000u      0.000s      0.009w    179 calls
JK: AO2USO                          :      0.000u      0.000s      0.000w    179 calls
HF: Form F                          :      0.000u      0.000s      0.001w    179 calls
HF: Form D                          :      0.000u      0.000s      0.001w    179 calls
HF: DIIS                            :      0.000u      0.000s      0.890w    165 calls
HF: Form C                          :      0.000u      0.000s      0.073w    165 calls
Grad: V T Perturb                   :      0.000u      0.000s      0.004w     17 calls
Grad: S                             :      0.000u      0.000s      0.002w     17 calls
Grad: JK                            :      0.000u      0.000s      0.400w     17 calls
JKGrad: Amn                         :      0.000u      0.000s      0.157w     17 calls
JKGrad: Awmn                        :      0.000u      0.000s      0.000w     17 calls
JKGrad: AB                          :      0.000u      0.000s      0.069w     17 calls
JKGrad: UV                          :      0.000u      0.000s      0.006w     17 calls
JKGrad: ABx                         :      0.000u      0.000s      0.024w     17 calls
JKGrad: Amnx                        :      0.000u      0.000s      0.082w     17 calls
Grad: XC                            :      0.000u      0.000s      0.000w     17 calls

--------------------------------------------------------------------------------------
DFH: sparsity prep                  :      0.000u      0.000s      0.048w     17 calls
| Libint2ERI::Libint2ERI            :      0.000u      0.000s      0.035w     17 calls
DFH: initialize()                   :      0.000u      0.000s      0.766w     17 calls
| Libint2ERI::Libint2ERI            :      0.000u      0.000s      0.023w     34 calls
| DFH: AO Construction              :      0.000u      0.000s      0.024w     17 calls
| DFH: AO-Met. Contraction          :      0.000u      0.000s      0.012w     17 calls
HF: Form core H                     :      0.000u      0.000s      0.153w     17 calls
HF: Form S/X                        :      0.000u      0.000s      0.009w     17 calls
HF: Guess                           :      0.000u      0.000s      1.055w     17 calls
| SAD Guess                         :      0.000u      0.000s      1.042w     14 calls
HF: Form G                          :      0.000u      0.000s      0.020w    179 calls
| JK: D                             :      0.000u      0.000s      0.001w    179 calls
| JK: USO2AO                        :      0.000u      0.000s      0.000w    179 calls
| JK: JK                            :      0.000u      0.000s      0.017w    179 calls
| | DFH: compute_JK()               :      0.000u      0.000s      0.017w    179 calls
| | | DFH: Grabbing AOs             :      0.000u      0.000s      0.000w    179 calls
| | | DFH: compute_J                :      0.000u      0.000s      0.005w    179 calls
| | | DFH: compute_K                :      0.000u      0.000s      0.009w    179 calls
| JK: AO2USO                        :      0.000u      0.000s      0.000w    179 calls
HF: Form F                          :      0.000u      0.000s      0.001w    179 calls
HF: Form D                          :      0.000u      0.000s      0.001w    179 calls
HF: DIIS                            :      0.000u      0.000s      0.890w    165 calls
HF: Form C                          :      0.000u      0.000s      0.073w    165 calls
Grad: V T Perturb                   :      0.000u      0.000s      0.004w     17 calls
Grad: S                             :      0.000u      0.000s      0.002w     17 calls
Grad: JK                            :      0.000u      0.000s      0.400w     17 calls
| JKGrad: Amn                       :      0.000u      0.000s      0.157w     17 calls
| | Libint2ERI::Libint2ERI          :      0.000u      0.000s      0.023w     17 calls
| JKGrad: Awmn                      :      0.000u      0.000s      0.000w     17 calls
| JKGrad: AB                        :      0.000u      0.000s      0.069w     17 calls
| | Libint2ERI::Libint2ERI          :      0.000u      0.000s      0.000w     17 calls
| JKGrad: UV                        :      0.000u      0.000s      0.006w     17 calls
| JKGrad: ABx                       :      0.000u      0.000s      0.024w     17 calls
| | Libint2ERI::Libint2ERI          :      0.000u      0.000s      0.001w     17 calls
| JKGrad: Amnx                      :      0.000u      0.000s      0.082w     17 calls
| | Libint2ERI::Libint2ERI          :      0.000u      0.000s      0.028w     17 calls
Grad: XC                            :      0.000u      0.000s      0.000w     17 calls

**************************************************************************************

Host: LaComputadora

Timers On : Sun Dec  8 16:13:43 2024
Timers Off: Sun Dec  8 16:13:44 2024

Wall Time:        0.63 seconds

                                                       Time (seconds)
Module                                       User      System        Wall        Calls

--------------------------------------------------------------------------------------

**************************************************************************************

Host: LaComputadora

Timers On : Sun Dec  8 16:13:36 2024
Timers Off: Sun Dec  8 16:13:51 2024

Wall Time:       14.95 seconds

                                                       Time (seconds)
Module                                       User      System        Wall        Calls
DFH: sparsity prep                  :      0.000u      0.000s      0.053w     17 calls
Libint2ERI::Libint2ERI              :      0.000u      0.000s      0.107w    119 calls
DFH: initialize()                   :      0.000u      0.000s      0.628w     17 calls
DFH: AO Construction                :      0.000u      0.000s      0.023w     17 calls
DFH: AO-Met. Contraction            :      0.000u      0.000s      0.009w     17 calls
HF: Form core H                     :      0.000u      0.000s      0.086w     17 calls
HF: Form S/X                        :      0.000u      0.000s      0.012w     17 calls
HF: Guess                           :      0.000u      0.000s      0.998w     17 calls
SAD Guess                           :      0.000u      0.000s      0.986w     14 calls
HF: Form G                          :      0.000u      0.000s      0.024w    183 calls
JK: D                               :      0.000u      0.000s      0.001w    183 calls
JK: USO2AO                          :      0.000u      0.000s      0.000w    183 calls
JK: JK                              :      0.000u      0.000s      0.020w    183 calls
DFH: compute_JK()                   :      0.000u      0.000s      0.020w    183 calls
DFH: Grabbing AOs                   :      0.000u      0.000s      0.000w    183 calls
DFH: compute_J                      :      0.000u      0.000s      0.006w    183 calls
DFH: compute_K                      :      0.000u      0.000s      0.010w    183 calls
JK: AO2USO                          :      0.000u      0.000s      0.000w    183 calls
HF: Form F                          :      0.000u      0.000s      0.001w    183 calls
HF: Form D                          :      0.000u      0.000s      0.001w    183 calls
HF: DIIS                            :      0.000u      0.000s      0.841w    169 calls
HF: Form C                          :      0.000u      0.000s      0.078w    169 calls
Grad: V T Perturb                   :      0.000u      0.000s      0.004w     17 calls
Grad: S                             :      0.000u      0.000s      0.001w     17 calls
Grad: JK                            :      0.000u      0.000s      0.332w     17 calls
JKGrad: Amn                         :      0.000u      0.000s      0.098w     17 calls
JKGrad: Awmn                        :      0.000u      0.000s      0.000w     17 calls
JKGrad: AB                          :      0.000u      0.000s      0.079w     17 calls
JKGrad: UV                          :      0.000u      0.000s      0.003w     17 calls
JKGrad: ABx                         :      0.000u      0.000s      0.022w     17 calls
JKGrad: Amnx                        :      0.000u      0.000s      0.079w     17 calls
Grad: XC                            :      0.000u      0.000s      0.000w     17 calls

--------------------------------------------------------------------------------------
DFH: sparsity prep                  :      0.000u      0.000s      0.053w     17 calls
| Libint2ERI::Libint2ERI            :      0.000u      0.000s      0.039w     17 calls
DFH: initialize()                   :      0.000u      0.000s      0.628w     17 calls
| Libint2ERI::Libint2ERI            :      0.000u      0.000s      0.022w     34 calls
| DFH: AO Construction              :      0.000u      0.000s      0.023w     17 calls
| DFH: AO-Met. Contraction          :      0.000u      0.000s      0.009w     17 calls
HF: Form core H                     :      0.000u      0.000s      0.086w     17 calls
HF: Form S/X                        :      0.000u      0.000s      0.012w     17 calls
HF: Guess                           :      0.000u      0.000s      0.998w     17 calls
| SAD Guess                         :      0.000u      0.000s      0.986w     14 calls
HF: Form G                          :      0.000u      0.000s      0.024w    183 calls
| JK: D                             :      0.000u      0.000s      0.001w    183 calls
| JK: USO2AO                        :      0.000u      0.000s      0.000w    183 calls
| JK: JK                            :      0.000u      0.000s      0.020w    183 calls
| | DFH: compute_JK()               :      0.000u      0.000s      0.020w    183 calls
| | | DFH: Grabbing AOs             :      0.000u      0.000s      0.000w    183 calls
| | | DFH: compute_J                :      0.000u      0.000s      0.006w    183 calls
| | | DFH: compute_K                :      0.000u      0.000s      0.010w    183 calls
| JK: AO2USO                        :      0.000u      0.000s      0.000w    183 calls
HF: Form F                          :      0.000u      0.000s      0.001w    183 calls
HF: Form D                          :      0.000u      0.000s      0.001w    183 calls
HF: DIIS                            :      0.000u      0.000s      0.841w    169 calls
HF: Form C                          :      0.000u      0.000s      0.078w    169 calls
Grad: V T Perturb                   :      0.000u      0.000s      0.004w     17 calls
Grad: S                             :      0.000u      0.000s      0.001w     17 calls
Grad: JK                            :      0.000u      0.000s      0.332w     17 calls
| JKGrad: Amn                       :      0.000u      0.000s      0.098w     17 calls
| | Libint2ERI::Libint2ERI          :      0.000u      0.000s      0.018w     17 calls
| JKGrad: Awmn                      :      0.000u      0.000s      0.000w     17 calls
| JKGrad: AB                        :      0.000u      0.000s      0.079w     17 calls
| | Libint2ERI::Libint2ERI          :      0.000u      0.000s      0.001w     17 calls
| JKGrad: UV                        :      0.000u      0.000s      0.003w     17 calls
| JKGrad: ABx                       :      0.000u      0.000s      0.022w     17 calls
| | Libint2ERI::Libint2ERI          :      0.000u      0.000s      0.000w     17 calls
| JKGrad: Amnx                      :      0.000u      0.000s      0.079w     17 calls
| | Libint2ERI::Libint2ERI          :      0.000u      0.000s      0.025w     17 calls
Grad: XC                            :      0.000u      0.000s      0.000w     17 calls

**************************************************************************************

Host: LaComputadora

Timers On : Sun Dec  8 16:22:49 2024
Timers Off: Sun Dec  8 16:22:50 2024

Wall Time:        0.59 seconds

                                                       Time (seconds)
Module                                       User      System        Wall        Calls

--------------------------------------------------------------------------------------

**************************************************************************************

Host: LaComputadora

Timers On : Sun Dec  8 16:22:42 2024
Timers Off: Sun Dec  8 16:22:58 2024

Wall Time:       15.61 seconds

                                                       Time (seconds)
Module                                       User      System        Wall        Calls
DFH: sparsity prep                  :      0.000u      0.000s      0.164w     17 calls
Libint2ERI::Libint2ERI              :      0.000u      0.000s      0.222w    119 calls
DFH: initialize()                   :      0.000u      0.000s      0.641w     17 calls
DFH: AO Construction                :      0.000u      0.000s      0.027w     17 calls
DFH: AO-Met. Contraction            :      0.000u      0.000s      0.009w     17 calls
HF: Form core H                     :      0.000u      0.000s      0.103w     17 calls
HF: Form S/X                        :      0.000u      0.000s      0.009w     17 calls
HF: Guess                           :      0.000u      0.000s      0.924w     17 calls
SAD Guess                           :      0.000u      0.000s      0.910w     14 calls
HF: Form G                          :      0.000u      0.000s      0.022w    183 calls
JK: D                               :      0.000u      0.000s      0.001w    183 calls
JK: USO2AO                          :      0.000u      0.000s      0.000w    183 calls
JK: JK                              :      0.000u      0.000s      0.018w    183 calls
DFH: compute_JK()                   :      0.000u      0.000s      0.017w    183 calls
DFH: Grabbing AOs                   :      0.000u      0.000s      0.000w    183 calls
DFH: compute_J                      :      0.000u      0.000s      0.006w    183 calls
DFH: compute_K                      :      0.000u      0.000s      0.009w    183 calls
JK: AO2USO                          :      0.000u      0.000s      0.000w    183 calls
HF: Form F                          :      0.000u      0.000s      0.001w    183 calls
HF: Form D                          :      0.000u      0.000s      0.001w    183 calls
HF: DIIS                            :      0.000u      0.000s      1.132w    169 calls
HF: Form C                          :      0.000u      0.000s      0.077w    169 calls
Grad: V T Perturb                   :      0.000u      0.000s      0.004w     17 calls
Grad: S                             :      0.000u      0.000s      0.001w     17 calls
Grad: JK                            :      0.000u      0.000s      0.326w     17 calls
JKGrad: Amn                         :      0.000u      0.000s      0.111w     17 calls
JKGrad: Awmn                        :      0.000u      0.000s      0.000w     17 calls
JKGrad: AB                          :      0.000u      0.000s      0.064w     17 calls
JKGrad: UV                          :      0.000u      0.000s      0.002w     17 calls
JKGrad: ABx                         :      0.000u      0.000s      0.020w     17 calls
JKGrad: Amnx                        :      0.000u      0.000s      0.073w     17 calls
Grad: XC                            :      0.000u      0.000s      0.000w     17 calls

--------------------------------------------------------------------------------------
DFH: sparsity prep                  :      0.000u      0.000s      0.164w     17 calls
| Libint2ERI::Libint2ERI            :      0.000u      0.000s      0.151w     17 calls
DFH: initialize()                   :      0.000u      0.000s      0.641w     17 calls
| Libint2ERI::Libint2ERI            :      0.000u      0.000s      0.020w     34 calls
| DFH: AO Construction              :      0.000u      0.000s      0.027w     17 calls
| DFH: AO-Met. Contraction          :      0.000u      0.000s      0.009w     17 calls
HF: Form core H                     :      0.000u      0.000s      0.103w     17 calls
HF: Form S/X                        :      0.000u      0.000s      0.009w     17 calls
HF: Guess                           :      0.000u      0.000s      0.924w     17 calls
| SAD Guess                         :      0.000u      0.000s      0.910w     14 calls
HF: Form G                          :      0.000u      0.000s      0.022w    183 calls
| JK: D                             :      0.000u      0.000s      0.001w    183 calls
| JK: USO2AO                        :      0.000u      0.000s      0.000w    183 calls
| JK: JK                            :      0.000u      0.000s      0.018w    183 calls
| | DFH: compute_JK()               :      0.000u      0.000s      0.017w    183 calls
| | | DFH: Grabbing AOs             :      0.000u      0.000s      0.000w    183 calls
| | | DFH: compute_J                :      0.000u      0.000s      0.006w    183 calls
| | | DFH: compute_K                :      0.000u      0.000s      0.009w    183 calls
| JK: AO2USO                        :      0.000u      0.000s      0.000w    183 calls
HF: Form F                          :      0.000u      0.000s      0.001w    183 calls
HF: Form D                          :      0.000u      0.000s      0.001w    183 calls
HF: DIIS                            :      0.000u      0.000s      1.132w    169 calls
HF: Form C                          :      0.000u      0.000s      0.077w    169 calls
Grad: V T Perturb                   :      0.000u      0.000s      0.004w     17 calls
Grad: S                             :      0.000u      0.000s      0.001w     17 calls
Grad: JK                            :      0.000u      0.000s      0.326w     17 calls
| JKGrad: Amn                       :      0.000u      0.000s      0.111w     17 calls
| | Libint2ERI::Libint2ERI          :      0.000u      0.000s      0.030w     17 calls
| JKGrad: Awmn                      :      0.000u      0.000s      0.000w     17 calls
| JKGrad: AB                        :      0.000u      0.000s      0.064w     17 calls
| | Libint2ERI::Libint2ERI          :      0.000u      0.000s      0.000w     17 calls
| JKGrad: UV                        :      0.000u      0.000s      0.002w     17 calls
| JKGrad: ABx                       :      0.000u      0.000s      0.020w     17 calls
| | Libint2ERI::Libint2ERI          :      0.000u      0.000s      0.000w     17 calls
| JKGrad: Amnx                      :      0.000u      0.000s      0.073w     17 calls
| | Libint2ERI::Libint2ERI          :      0.000u      0.000s      0.021w     17 calls
Grad: XC                            :      0.000u      0.000s      0.000w     17 calls

**************************************************************************************

Host: LaComputadora

Timers On : Sun Dec  8 16:23:35 2024
Timers Off: Sun Dec  8 16:23:36 2024

Wall Time:        0.61 seconds

                                                       Time (seconds)
Module                                       User      System        Wall        Calls

--------------------------------------------------------------------------------------

**************************************************************************************

Host: LaComputadora

Timers On : Sun Dec  8 16:23:28 2024
Timers Off: Sun Dec  8 16:23:44 2024

Wall Time:       16.08 seconds

                                                       Time (seconds)
Module                                       User      System        Wall        Calls
DFH: sparsity prep                  :      0.000u      0.000s      0.054w     17 calls
Libint2ERI::Libint2ERI              :      0.000u      0.000s      0.116w    119 calls
DFH: initialize()                   :      0.000u      0.000s      0.755w     17 calls
DFH: AO Construction                :      0.000u      0.000s      0.030w     17 calls
DFH: AO-Met. Contraction            :      0.000u      0.000s      0.012w     17 calls
HF: Form core H                     :      0.000u      0.000s      0.086w     17 calls
HF: Form S/X                        :      0.000u      0.000s      0.009w     17 calls
HF: Guess                           :      0.000u      0.000s      0.794w     17 calls
SAD Guess                           :      0.000u      0.000s      0.781w     14 calls
HF: Form G                          :      0.000u      0.000s      0.021w    183 calls
JK: D                               :      0.000u      0.000s      0.001w    183 calls
JK: USO2AO                          :      0.000u      0.000s      0.000w    183 calls
JK: JK                              :      0.000u      0.000s      0.016w    183 calls
DFH: compute_JK()                   :      0.000u      0.000s      0.016w    183 calls
DFH: Grabbing AOs                   :      0.000u      0.000s      0.000w    183 calls
DFH: compute_J                      :      0.000u      0.000s      0.006w    183 calls
DFH: compute_K                      :      0.000u      0.000s      0.008w    183 calls
JK: AO2USO                          :      0.000u      0.000s      0.000w    183 calls
HF: Form F                          :      0.000u      0.000s      0.001w    183 calls
HF: Form D                          :      0.000u      0.000s      0.001w    183 calls
HF: DIIS                            :      0.000u      0.000s      0.845w    169 calls
HF: Form C                          :      0.000u      0.000s      0.072w    169 calls
Grad: V T Perturb                   :      0.000u      0.000s      0.003w     17 calls
Grad: S                             :      0.000u      0.000s      0.001w     17 calls
Grad: JK                            :      0.000u      0.000s      0.318w     17 calls
JKGrad: Amn                         :      0.000u      0.000s      0.094w     17 calls
JKGrad: Awmn                        :      0.000u      0.000s      0.000w     17 calls
JKGrad: AB                          :      0.000u      0.000s      0.075w     17 calls
JKGrad: UV                          :      0.000u      0.000s      0.003w     17 calls
JKGrad: ABx                         :      0.000u      0.000s      0.020w     17 calls
JKGrad: Amnx                        :      0.000u      0.000s      0.075w     17 calls
Grad: XC                            :      0.000u      0.000s      0.000w     17 calls

--------------------------------------------------------------------------------------
DFH: sparsity prep                  :      0.000u      0.000s      0.054w     17 calls
| Libint2ERI::Libint2ERI            :      0.000u      0.000s      0.043w     17 calls
DFH: initialize()                   :      0.000u      0.000s      0.755w     17 calls
| Libint2ERI::Libint2ERI            :      0.000u      0.000s      0.027w     34 calls
| DFH: AO Construction              :      0.000u      0.000s      0.030w     17 calls
| DFH: AO-Met. Contraction          :      0.000u      0.000s      0.012w     17 calls
HF: Form core H                     :      0.000u      0.000s      0.086w     17 calls
HF: Form S/X                        :      0.000u      0.000s      0.009w     17 calls
HF: Guess                           :      0.000u      0.000s      0.794w     17 calls
| SAD Guess                         :      0.000u      0.000s      0.781w     14 calls
HF: Form G                          :      0.000u      0.000s      0.021w    183 calls
| JK: D                             :      0.000u      0.000s      0.001w    183 calls
| JK: USO2AO                        :      0.000u      0.000s      0.000w    183 calls
| JK: JK                            :      0.000u      0.000s      0.016w    183 calls
| | DFH: compute_JK()               :      0.000u      0.000s      0.016w    183 calls
| | | DFH: Grabbing AOs             :      0.000u      0.000s      0.000w    183 calls
| | | DFH: compute_J                :      0.000u      0.000s      0.006w    183 calls
| | | DFH: compute_K                :      0.000u      0.000s      0.008w    183 calls
| JK: AO2USO                        :      0.000u      0.000s      0.000w    183 calls
HF: Form F                          :      0.000u      0.000s      0.001w    183 calls
HF: Form D                          :      0.000u      0.000s      0.001w    183 calls
HF: DIIS                            :      0.000u      0.000s      0.845w    169 calls
HF: Form C                          :      0.000u      0.000s      0.072w    169 calls
Grad: V T Perturb                   :      0.000u      0.000s      0.003w     17 calls
Grad: S                             :      0.000u      0.000s      0.001w     17 calls
Grad: JK                            :      0.000u      0.000s      0.318w     17 calls
| JKGrad: Amn                       :      0.000u      0.000s      0.094w     17 calls
| | Libint2ERI::Libint2ERI          :      0.000u      0.000s      0.022w     17 calls
| JKGrad: Awmn                      :      0.000u      0.000s      0.000w     17 calls
| JKGrad: AB                        :      0.000u      0.000s      0.075w     17 calls
| | Libint2ERI::Libint2ERI          :      0.000u      0.000s      0.000w     17 calls
| JKGrad: UV                        :      0.000u      0.000s      0.003w     17 calls
| JKGrad: ABx                       :      0.000u      0.000s      0.020w     17 calls
| | Libint2ERI::Libint2ERI          :      0.000u      0.000s      0.000w     17 calls
| JKGrad: Amnx                      :      0.000u      0.000s      0.075w     17 calls
| | Libint2ERI::Libint2ERI          :      0.000u      0.000s      0.023w     17 calls
Grad: XC                            :      0.000u      0.000s      0.000w     17 calls

**************************************************************************************

Host: LaComputadora

Timers On : Sun Dec  8 16:24:20 2024
Timers Off: Sun Dec  8 16:24:21 2024

Wall Time:        0.65 seconds

                                                       Time (seconds)
Module                                       User      System        Wall        Calls

--------------------------------------------------------------------------------------

**************************************************************************************

Host: LaComputadora

Timers On : Sun Dec  8 16:24:15 2024
Timers Off: Sun Dec  8 16:24:28 2024

Wall Time:       13.46 seconds

                                                       Time (seconds)
Module                                       User      System        Wall        Calls
DFH: sparsity prep                  :      0.000u      0.000s      0.058w     17 calls
Libint2ERI::Libint2ERI              :      0.000u      0.000s      0.120w    119 calls
DFH: initialize()                   :      0.000u      0.000s      0.698w     17 calls
DFH: AO Construction                :      0.000u      0.000s      0.031w     17 calls
DFH: AO-Met. Contraction            :      0.000u      0.000s      0.008w     17 calls
HF: Form core H                     :      0.000u      0.000s      0.108w     17 calls
HF: Form S/X                        :      0.000u      0.000s      0.007w     17 calls
HF: Guess                           :      0.000u      0.000s      0.868w     17 calls
SAD Guess                           :      0.000u      0.000s      0.855w     14 calls
HF: Form G                          :      0.000u      0.000s      0.020w    183 calls
JK: D                               :      0.000u      0.000s      0.001w    183 calls
JK: USO2AO                          :      0.000u      0.000s      0.000w    183 calls
JK: JK                              :      0.000u      0.000s      0.017w    183 calls
DFH: compute_JK()                   :      0.000u      0.000s      0.016w    183 calls
DFH: Grabbing AOs                   :      0.000u      0.000s      0.000w    183 calls
DFH: compute_J                      :      0.000u      0.000s      0.006w    183 calls
DFH: compute_K                      :      0.000u      0.000s      0.008w    183 calls
JK: AO2USO                          :      0.000u      0.000s      0.000w    183 calls
HF: Form F                          :      0.000u      0.000s      0.001w    183 calls
HF: Form D                          :      0.000u      0.000s      0.001w    183 calls
HF: DIIS                            :      0.000u      0.000s      0.836w    169 calls
HF: Form C                          :      0.000u      0.000s      0.067w    169 calls
Grad: V T Perturb                   :      0.000u      0.000s      0.004w     17 calls
Grad: S                             :      0.000u      0.000s      0.001w     17 calls
Grad: JK                            :      0.000u      0.000s      0.373w     17 calls
JKGrad: Amn                         :      0.000u      0.000s      0.129w     17 calls
JKGrad: Awmn                        :      0.000u      0.000s      0.000w     17 calls
JKGrad: AB                          :      0.000u      0.000s      0.093w     17 calls
JKGrad: UV                          :      0.000u      0.000s      0.003w     17 calls
JKGrad: ABx                         :      0.000u      0.000s      0.021w     17 calls
JKGrad: Amnx                        :      0.000u      0.000s      0.074w     17 calls
Grad: XC                            :      0.000u      0.000s      0.000w     17 calls

--------------------------------------------------------------------------------------
DFH: sparsity prep                  :      0.000u      0.000s      0.058w     17 calls
| Libint2ERI::Libint2ERI            :      0.000u      0.000s      0.045w     17 calls
DFH: initialize()                   :      0.000u      0.000s      0.698w     17 calls
| Libint2ERI::Libint2ERI            :      0.000u      0.000s      0.022w     34 calls
| DFH: AO Construction              :      0.000u      0.000s      0.031w     17 calls
| DFH: AO-Met. Contraction          :      0.000u      0.000s      0.008w     17 calls
HF: Form core H                     :      0.000u      0.000s      0.108w     17 calls
HF: Form S/X                        :      0.000u      0.000s      0.007w     17 calls
HF: Guess                           :      0.000u      0.000s      0.868w     17 calls
| SAD Guess                         :      0.000u      0.000s      0.855w     14 calls
HF: Form G                          :      0.000u      0.000s      0.020w    183 calls
| JK: D                             :      0.000u      0.000s      0.001w    183 calls
| JK: USO2AO                        :      0.000u      0.000s      0.000w    183 calls
| JK: JK                            :      0.000u      0.000s      0.017w    183 calls
| | DFH: compute_JK()               :      0.000u      0.000s      0.016w    183 calls
| | | DFH: Grabbing AOs             :      0.000u      0.000s      0.000w    183 calls
| | | DFH: compute_J                :      0.000u      0.000s      0.006w    183 calls
| | | DFH: compute_K                :      0.000u      0.000s      0.008w    183 calls
| JK: AO2USO                        :      0.000u      0.000s      0.000w    183 calls
HF: Form F                          :      0.000u      0.000s      0.001w    183 calls
HF: Form D                          :      0.000u      0.000s      0.001w    183 calls
HF: DIIS                            :      0.000u      0.000s      0.836w    169 calls
HF: Form C                          :      0.000u      0.000s      0.067w    169 calls
Grad: V T Perturb                   :      0.000u      0.000s      0.004w     17 calls
Grad: S                             :      0.000u      0.000s      0.001w     17 calls
Grad: JK                            :      0.000u      0.000s      0.373w     17 calls
| JKGrad: Amn                       :      0.000u      0.000s      0.129w     17 calls
| | Libint2ERI::Libint2ERI          :      0.000u      0.000s      0.027w     17 calls
| JKGrad: Awmn                      :      0.000u      0.000s      0.000w     17 calls
| JKGrad: AB                        :      0.000u      0.000s      0.093w     17 calls
| | Libint2ERI::Libint2ERI          :      0.000u      0.000s      0.001w     17 calls
| JKGrad: UV                        :      0.000u      0.000s      0.003w     17 calls
| JKGrad: ABx                       :      0.000u      0.000s      0.021w     17 calls
| | Libint2ERI::Libint2ERI          :      0.000u      0.000s      0.000w     17 calls
| JKGrad: Amnx                      :      0.000u      0.000s      0.074w     17 calls
| | Libint2ERI::Libint2ERI          :      0.000u      0.000s      0.025w     17 calls
Grad: XC                            :      0.000u      0.000s      0.000w     17 calls

**************************************************************************************

Host: LaComputadora

Timers On : Sun Dec  8 16:25:08 2024
Timers Off: Sun Dec  8 16:25:09 2024

Wall Time:        0.60 seconds

                                                       Time (seconds)
Module                                       User      System        Wall        Calls

--------------------------------------------------------------------------------------

**************************************************************************************

Host: LaComputadora

Timers On : Sun Dec  8 16:25:00 2024
Timers Off: Sun Dec  8 16:25:16 2024

Wall Time:       16.08 seconds

                                                       Time (seconds)
Module                                       User      System        Wall        Calls
DFH: sparsity prep                  :      0.000u      0.000s      0.088w     17 calls
Libint2ERI::Libint2ERI              :      0.000u      0.000s      0.154w    119 calls
DFH: initialize()                   :      0.000u      0.000s      0.621w     17 calls
DFH: AO Construction                :      0.000u      0.000s      0.026w     17 calls
DFH: AO-Met. Contraction            :      0.000u      0.000s      0.010w     17 calls
HF: Form core H                     :      0.000u      0.000s      0.082w     17 calls
HF: Form S/X                        :      0.000u      0.000s      0.008w     17 calls
HF: Guess                           :      0.000u      0.000s      0.884w     17 calls
SAD Guess                           :      0.000u      0.000s      0.871w     14 calls
HF: Form G                          :      0.000u      0.000s      0.021w    183 calls
JK: D                               :      0.000u      0.000s      0.001w    183 calls
JK: USO2AO                          :      0.000u      0.000s      0.000w    183 calls
JK: JK                              :      0.000u      0.000s      0.018w    183 calls
DFH: compute_JK()                   :      0.000u      0.000s      0.017w    183 calls
DFH: Grabbing AOs                   :      0.000u      0.000s      0.000w    183 calls
DFH: compute_J                      :      0.000u      0.000s      0.006w    183 calls
DFH: compute_K                      :      0.000u      0.000s      0.009w    183 calls
JK: AO2USO                          :      0.000u      0.000s      0.000w    183 calls
HF: Form F                          :      0.000u      0.000s      0.001w    183 calls
HF: Form D                          :      0.000u      0.000s      0.001w    183 calls
HF: DIIS                            :      0.000u      0.000s      0.908w    169 calls
HF: Form C                          :      0.000u      0.000s      0.072w    169 calls
Grad: V T Perturb                   :      0.000u      0.000s      0.004w     17 calls
Grad: S                             :      0.000u      0.000s      0.001w     17 calls
Grad: JK                            :      0.000u      0.000s      0.333w     17 calls
JKGrad: Amn                         :      0.000u      0.000s      0.111w     17 calls
JKGrad: Awmn                        :      0.000u      0.000s      0.000w     17 calls
JKGrad: AB                          :      0.000u      0.000s      0.058w     17 calls
JKGrad: UV                          :      0.000u      0.000s      0.002w     17 calls
JKGrad: ABx                         :      0.000u      0.000s      0.018w     17 calls
JKGrad: Amnx                        :      0.000u      0.000s      0.084w     17 calls
Grad: XC                            :      0.000u      0.000s      0.000w     17 calls

--------------------------------------------------------------------------------------
DFH: sparsity prep                  :      0.000u      0.000s      0.088w     17 calls
| Libint2ERI::Libint2ERI            :      0.000u      0.000s      0.076w     17 calls
DFH: initialize()                   :      0.000u      0.000s      0.621w     17 calls
| Libint2ERI::Libint2ERI            :      0.000u      0.000s      0.024w     34 calls
| DFH: AO Construction              :      0.000u      0.000s      0.026w     17 calls
| DFH: AO-Met. Contraction          :      0.000u      0.000s      0.010w     17 calls
HF: Form core H                     :      0.000u      0.000s      0.082w     17 calls
HF: Form S/X                        :      0.000u      0.000s      0.008w     17 calls
HF: Guess                           :      0.000u      0.000s      0.884w     17 calls
| SAD Guess                         :      0.000u      0.000s      0.871w     14 calls
HF: Form G                          :      0.000u      0.000s      0.021w    183 calls
| JK: D                             :      0.000u      0.000s      0.001w    183 calls
| JK: USO2AO                        :      0.000u      0.000s      0.000w    183 calls
| JK: JK                            :      0.000u      0.000s      0.018w    183 calls
| | DFH: compute_JK()               :      0.000u      0.000s      0.017w    183 calls
| | | DFH: Grabbing AOs             :      0.000u      0.000s      0.000w    183 calls
| | | DFH: compute_J                :      0.000u      0.000s      0.006w    183 calls
| | | DFH: compute_K                :      0.000u      0.000s      0.009w    183 calls
| JK: AO2USO                        :      0.000u      0.000s      0.000w    183 calls
HF: Form F                          :      0.000u      0.000s      0.001w    183 calls
HF: Form D                          :      0.000u      0.000s      0.001w    183 calls
HF: DIIS                            :      0.000u      0.000s      0.908w    169 calls
HF: Form C                          :      0.000u      0.000s      0.072w    169 calls
Grad: V T Perturb                   :      0.000u      0.000s      0.004w     17 calls
Grad: S                             :      0.000u      0.000s      0.001w     17 calls
Grad: JK                            :      0.000u      0.000s      0.333w     17 calls
| JKGrad: Amn                       :      0.000u      0.000s      0.111w     17 calls
| | Libint2ERI::Libint2ERI          :      0.000u      0.000s      0.028w     17 calls
| JKGrad: Awmn                      :      0.000u      0.000s      0.000w     17 calls
| JKGrad: AB                        :      0.000u      0.000s      0.058w     17 calls
| | Libint2ERI::Libint2ERI          :      0.000u      0.000s      0.000w     17 calls
| JKGrad: UV                        :      0.000u      0.000s      0.002w     17 calls
| JKGrad: ABx                       :      0.000u      0.000s      0.018w     17 calls
| | Libint2ERI::Libint2ERI          :      0.000u      0.000s      0.000w     17 calls
| JKGrad: Amnx                      :      0.000u      0.000s      0.084w     17 calls
| | Libint2ERI::Libint2ERI          :      0.000u      0.000s      0.025w     17 calls
Grad: XC                            :      0.000u      0.000s      0.000w     17 calls

**************************************************************************************

Host: LaComputadora

Timers On : Sun Dec  8 16:34:53 2024
Timers Off: Sun Dec  8 16:34:54 2024

Wall Time:        0.88 seconds

                                                       Time (seconds)
Module                                       User      System        Wall        Calls

--------------------------------------------------------------------------------------

**************************************************************************************

Host: LaComputadora

Timers On : Sun Dec  8 16:34:47 2024
Timers Off: Sun Dec  8 16:35:02 2024

Wall Time:       14.61 seconds

                                                       Time (seconds)
Module                                       User      System        Wall        Calls
DFH: sparsity prep                  :      0.000u      0.000s      0.053w     17 calls
Libint2ERI::Libint2ERI              :      0.000u      0.000s      0.114w    119 calls
DFH: initialize()                   :      0.000u      0.000s      0.615w     17 calls
DFH: AO Construction                :      0.000u      0.000s      0.029w     17 calls
DFH: AO-Met. Contraction            :      0.000u      0.000s      0.011w     17 calls
HF: Form core H                     :      0.000u      0.000s      0.101w     17 calls
HF: Form S/X                        :      0.000u      0.000s      0.008w     17 calls
HF: Guess                           :      0.000u      0.000s      0.812w     17 calls
SAD Guess                           :      0.000u      0.000s      0.798w     14 calls
HF: Form G                          :      0.000u      0.000s      0.019w    183 calls
JK: D                               :      0.000u      0.000s      0.001w    183 calls
JK: USO2AO                          :      0.000u      0.000s      0.000w    183 calls
JK: JK                              :      0.000u      0.000s      0.016w    183 calls
DFH: compute_JK()                   :      0.000u      0.000s      0.015w    183 calls
DFH: Grabbing AOs                   :      0.000u      0.000s      0.000w    183 calls
DFH: compute_J                      :      0.000u      0.000s      0.006w    183 calls
DFH: compute_K                      :      0.000u      0.000s      0.008w    183 calls
JK: AO2USO                          :      0.000u      0.000s      0.000w    183 calls
HF: Form F                          :      0.000u      0.000s      0.001w    183 calls
HF: Form D                          :      0.000u      0.000s      0.001w    183 calls
HF: DIIS                            :      0.000u      0.000s      0.981w    169 calls
HF: Form C                          :      0.000u      0.000s      0.069w    169 calls
Grad: V T Perturb                   :      0.000u      0.000s      0.003w     17 calls
Grad: S                             :      0.000u      0.000s      0.001w     17 calls
Grad: JK                            :      0.000u      0.000s      0.448w     17 calls
JKGrad: Amn                         :      0.000u      0.000s      0.199w     17 calls
JKGrad: Awmn                        :      0.000u      0.000s      0.000w     17 calls
JKGrad: AB                          :      0.000u      0.000s      0.075w     17 calls
JKGrad: UV                          :      0.000u      0.000s      0.003w     17 calls
JKGrad: ABx                         :      0.000u      0.000s      0.025w     17 calls
JKGrad: Amnx                        :      0.000u      0.000s      0.088w     17 calls
Grad: XC                            :      0.000u      0.000s      0.000w     17 calls

--------------------------------------------------------------------------------------
DFH: sparsity prep                  :      0.000u      0.000s      0.053w     17 calls
| Libint2ERI::Libint2ERI            :      0.000u      0.000s      0.042w     17 calls
DFH: initialize()                   :      0.000u      0.000s      0.615w     17 calls
| Libint2ERI::Libint2ERI            :      0.000u      0.000s      0.023w     34 calls
| DFH: AO Construction              :      0.000u      0.000s      0.029w     17 calls
| DFH: AO-Met. Contraction          :      0.000u      0.000s      0.011w     17 calls
HF: Form core H                     :      0.000u      0.000s      0.101w     17 calls
HF: Form S/X                        :      0.000u      0.000s      0.008w     17 calls
HF: Guess                           :      0.000u      0.000s      0.812w     17 calls
| SAD Guess                         :      0.000u      0.000s      0.798w     14 calls
HF: Form G                          :      0.000u      0.000s      0.019w    183 calls
| JK: D                             :      0.000u      0.000s      0.001w    183 calls
| JK: USO2AO                        :      0.000u      0.000s      0.000w    183 calls
| JK: JK                            :      0.000u      0.000s      0.016w    183 calls
| | DFH: compute_JK()               :      0.000u      0.000s      0.015w    183 calls
| | | DFH: Grabbing AOs             :      0.000u      0.000s      0.000w    183 calls
| | | DFH: compute_J                :      0.000u      0.000s      0.006w    183 calls
| | | DFH: compute_K                :      0.000u      0.000s      0.008w    183 calls
| JK: AO2USO                        :      0.000u      0.000s      0.000w    183 calls
HF: Form F                          :      0.000u      0.000s      0.001w    183 calls
HF: Form D                          :      0.000u      0.000s      0.001w    183 calls
HF: DIIS                            :      0.000u      0.000s      0.981w    169 calls
HF: Form C                          :      0.000u      0.000s      0.069w    169 calls
Grad: V T Perturb                   :      0.000u      0.000s      0.003w     17 calls
Grad: S                             :      0.000u      0.000s      0.001w     17 calls
Grad: JK                            :      0.000u      0.000s      0.448w     17 calls
| JKGrad: Amn                       :      0.000u      0.000s      0.199w     17 calls
| | Libint2ERI::Libint2ERI          :      0.000u      0.000s      0.022w     17 calls
| JKGrad: Awmn                      :      0.000u      0.000s      0.000w     17 calls
| JKGrad: AB                        :      0.000u      0.000s      0.075w     17 calls
| | Libint2ERI::Libint2ERI          :      0.000u      0.000s      0.000w     17 calls
| JKGrad: UV                        :      0.000u      0.000s      0.003w     17 calls
| JKGrad: ABx                       :      0.000u      0.000s      0.025w     17 calls
| | Libint2ERI::Libint2ERI          :      0.000u      0.000s      0.001w     17 calls
| JKGrad: Amnx                      :      0.000u      0.000s      0.088w     17 calls
| | Libint2ERI::Libint2ERI          :      0.000u      0.000s      0.026w     17 calls
Grad: XC                            :      0.000u      0.000s      0.000w     17 calls

**************************************************************************************

Host: LaComputadora

Timers On : Sun Dec  8 16:37:42 2024
Timers Off: Sun Dec  8 16:37:43 2024

Wall Time:        0.60 seconds

                                                       Time (seconds)
Module                                       User      System        Wall        Calls

--------------------------------------------------------------------------------------

**************************************************************************************

Host: LaComputadora

Timers On : Sun Dec  8 16:37:35 2024
Timers Off: Sun Dec  8 16:37:50 2024

Wall Time:       15.27 seconds

                                                       Time (seconds)
Module                                       User      System        Wall        Calls
DFH: sparsity prep                  :      0.000u      0.000s      0.049w     17 calls
Libint2ERI::Libint2ERI              :      0.000u      0.000s      0.120w    119 calls
DFH: initialize()                   :      0.000u      0.000s      0.658w     17 calls
DFH: AO Construction                :      0.000u      0.000s      0.027w     17 calls
DFH: AO-Met. Contraction            :      0.000u      0.000s      0.009w     17 calls
HF: Form core H                     :      0.000u      0.000s      0.099w     17 calls
HF: Form S/X                        :      0.000u      0.000s      0.014w     17 calls
HF: Guess                           :      0.000u      0.000s      0.761w     17 calls
SAD Guess                           :      0.000u      0.000s      0.748w     14 calls
HF: Form G                          :      0.000u      0.000s      0.019w    183 calls
JK: D                               :      0.000u      0.000s      0.001w    183 calls
JK: USO2AO                          :      0.000u      0.000s      0.000w    183 calls
JK: JK                              :      0.000u      0.000s      0.016w    183 calls
DFH: compute_JK()                   :      0.000u      0.000s      0.015w    183 calls
DFH: Grabbing AOs                   :      0.000u      0.000s      0.000w    183 calls
DFH: compute_J                      :      0.000u      0.000s      0.005w    183 calls
DFH: compute_K                      :      0.000u      0.000s      0.007w    183 calls
JK: AO2USO                          :      0.000u      0.000s      0.000w    183 calls
HF: Form F                          :      0.000u      0.000s      0.001w    183 calls
HF: Form D                          :      0.000u      0.000s      0.001w    183 calls
HF: DIIS                            :      0.000u      0.000s      0.917w    169 calls
HF: Form C                          :      0.000u      0.000s      0.072w    169 calls
Grad: V T Perturb                   :      0.000u      0.000s      0.004w     17 calls
Grad: S                             :      0.000u      0.000s      0.001w     17 calls
Grad: JK                            :      0.000u      0.000s      0.588w     17 calls
JKGrad: Amn                         :      0.000u      0.000s      0.279w     17 calls
JKGrad: Awmn                        :      0.000u      0.000s      0.000w     17 calls
JKGrad: AB                          :      0.000u      0.000s      0.088w     17 calls
JKGrad: UV                          :      0.000u      0.000s      0.003w     17 calls
JKGrad: ABx                         :      0.000u      0.000s      0.022w     17 calls
JKGrad: Amnx                        :      0.000u      0.000s      0.082w     17 calls
Grad: XC                            :      0.000u      0.000s      0.000w     17 calls

--------------------------------------------------------------------------------------
DFH: sparsity prep                  :      0.000u      0.000s      0.049w     17 calls
| Libint2ERI::Libint2ERI            :      0.000u      0.000s      0.038w     17 calls
DFH: initialize()                   :      0.000u      0.000s      0.658w     17 calls
| Libint2ERI::Libint2ERI            :      0.000u      0.000s      0.025w     34 calls
| DFH: AO Construction              :      0.000u      0.000s      0.027w     17 calls
| DFH: AO-Met. Contraction          :      0.000u      0.000s      0.009w     17 calls
HF: Form core H                     :      0.000u      0.000s      0.099w     17 calls
HF: Form S/X                        :      0.000u      0.000s      0.014w     17 calls
HF: Guess                           :      0.000u      0.000s      0.761w     17 calls
| SAD Guess                         :      0.000u      0.000s      0.748w     14 calls
HF: Form G                          :      0.000u      0.000s      0.019w    183 calls
| JK: D                             :      0.000u      0.000s      0.001w    183 calls
| JK: USO2AO                        :      0.000u      0.000s      0.000w    183 calls
| JK: JK                            :      0.000u      0.000s      0.016w    183 calls
| | DFH: compute_JK()               :      0.000u      0.000s      0.015w    183 calls
| | | DFH: Grabbing AOs             :      0.000u      0.000s      0.000w    183 calls
| | | DFH: compute_J                :      0.000u      0.000s      0.005w    183 calls
| | | DFH: compute_K                :      0.000u      0.000s      0.007w    183 calls
| JK: AO2USO                        :      0.000u      0.000s      0.000w    183 calls
HF: Form F                          :      0.000u      0.000s      0.001w    183 calls
HF: Form D                          :      0.000u      0.000s      0.001w    183 calls
HF: DIIS                            :      0.000u      0.000s      0.917w    169 calls
HF: Form C                          :      0.000u      0.000s      0.072w    169 calls
Grad: V T Perturb                   :      0.000u      0.000s      0.004w     17 calls
Grad: S                             :      0.000u      0.000s      0.001w     17 calls
Grad: JK                            :      0.000u      0.000s      0.588w     17 calls
| JKGrad: Amn                       :      0.000u      0.000s      0.279w     17 calls
| | Libint2ERI::Libint2ERI          :      0.000u      0.000s      0.028w     17 calls
| JKGrad: Awmn                      :      0.000u      0.000s      0.000w     17 calls
| JKGrad: AB                        :      0.000u      0.000s      0.088w     17 calls
| | Libint2ERI::Libint2ERI          :      0.000u      0.000s      0.001w     17 calls
| JKGrad: UV                        :      0.000u      0.000s      0.003w     17 calls
| JKGrad: ABx                       :      0.000u      0.000s      0.022w     17 calls
| | Libint2ERI::Libint2ERI          :      0.000u      0.000s      0.001w     17 calls
| JKGrad: Amnx                      :      0.000u      0.000s      0.082w     17 calls
| | Libint2ERI::Libint2ERI          :      0.000u      0.000s      0.028w     17 calls
Grad: XC                            :      0.000u      0.000s      0.000w     17 calls

**************************************************************************************

Host: LaComputadora

Timers On : Sun Dec  8 16:44:43 2024
Timers Off: Sun Dec  8 16:44:43 2024

Wall Time:        0.86 seconds

                                                       Time (seconds)
Module                                       User      System        Wall        Calls

--------------------------------------------------------------------------------------

**************************************************************************************

Host: LaComputadora

Timers On : Sun Dec  8 16:56:16 2024
Timers Off: Sun Dec  8 16:56:17 2024

Wall Time:        0.59 seconds

                                                       Time (seconds)
Module                                       User      System        Wall        Calls

--------------------------------------------------------------------------------------

**************************************************************************************

Host: LaComputadora

Timers On : Sun Dec  8 17:04:03 2024
Timers Off: Sun Dec  8 17:04:06 2024

Wall Time:        2.41 seconds

                                                       Time (seconds)
Module                                       User      System        Wall        Calls

--------------------------------------------------------------------------------------

**************************************************************************************

Host: LaComputadora

Timers On : Sun Dec  8 17:04:57 2024
Timers Off: Sun Dec  8 17:05:01 2024

Wall Time:        4.33 seconds

                                                       Time (seconds)
Module                                       User      System        Wall        Calls

--------------------------------------------------------------------------------------

**************************************************************************************

Host: LaComputadora

Timers On : Sun Dec  8 17:05:26 2024
Timers Off: Sun Dec  8 17:05:26 2024

Wall Time:        0.62 seconds

                                                       Time (seconds)
Module                                       User      System        Wall        Calls

--------------------------------------------------------------------------------------

**************************************************************************************

Host: LaComputadora

Timers On : Sun Dec  8 17:05:32 2024
Timers Off: Sun Dec  8 17:05:39 2024

Wall Time:        6.84 seconds

                                                       Time (seconds)
Module                                       User      System        Wall        Calls

--------------------------------------------------------------------------------------

**************************************************************************************

Host: LaComputadora

Timers On : Sun Dec  8 17:05:47 2024
Timers Off: Sun Dec  8 17:05:50 2024

Wall Time:        2.80 seconds

                                                       Time (seconds)
Module                                       User      System        Wall        Calls

--------------------------------------------------------------------------------------

**************************************************************************************

Host: LaComputadora

Timers On : Sun Dec  8 17:05:55 2024
Timers Off: Sun Dec  8 17:06:09 2024

[...]
HF: Form S/X                        :      0.000u      0.000s      0.009w     17 calls
HF: Guess                           :      0.000u      0.000s      1.554w     17 calls
SAD Guess                           :      0.000u      0.000s      1.526w     14 calls
HF: Form G                          :      0.000u      0.000s      0.059w    183 calls
JK: D                               :      0.000u      0.000s      0.003w    183 calls
JK: USO2AO                          :      0.000u      0.000s      0.001w    183 calls
JK: JK                              :      0.000u      0.000s      0.048w    183 calls
DFH: compute_JK()                   :      0.000u      0.000s      0.047w    183 calls
DFH: Grabbing AOs                   :      0.000u      0.000s      0.000w    183 calls
DFH: compute_J                      :      0.000u      0.000s      0.016w    183 calls
DFH: compute_K                      :      0.000u      0.000s      0.024w    183 calls
JK: AO2USO                          :      0.000u      0.000s      0.000w    183 calls
HF: Form F                          :      0.000u      0.000s      0.003w    183 calls
HF: Form D                          :      0.000u      0.000s      0.002w    183 calls
HF: DIIS                            :      0.000u      0.000s      2.664w    169 calls
HF: Form C                          :      0.000u      0.000s      0.191w    169 calls
Grad: V T Perturb                   :      0.000u      0.000s      0.008w     17 calls
Grad: S                             :      0.000u      0.000s      0.002w     17 calls
Grad: JK                            :      0.000u      0.000s      1.206w     17 calls
JKGrad: Amn                         :      0.000u      0.000s      0.647w     17 calls
JKGrad: Awmn                        :      0.000u      0.000s      0.000w     17 calls
JKGrad: AB                          :      0.000u      0.000s      0.174w     17 calls
JKGrad: UV                          :      0.000u      0.000s      0.010w     17 calls
JKGrad: ABx                         :      0.000u      0.000s      0.057w     17 calls
JKGrad: Amnx                        :      0.000u      0.000s      0.196w     17 calls
Grad: XC                            :      0.000u      0.000s      0.000w     17 calls

--------------------------------------------------------------------------------------
DFH: sparsity prep                  :      0.000u      0.000s      0.128w     17 calls
| Libint2ERI::Libint2ERI            :      0.000u      0.000s      0.095w     17 calls
DFH: initialize()                   :      0.000u      0.000s      1.194w     17 calls
| Libint2ERI::Libint2ERI            :      0.000u      0.000s      0.050w     34 calls
| DFH: AO Construction              :      0.000u      0.000s      0.043w     17 calls
| DFH: AO-Met. Contraction          :      0.000u      0.000s      0.019w     17 calls
HF: Form core H                     :      0.000u      0.000s      0.294w     17 calls
HF: Form S/X                        :      0.000u      0.000s      0.009w     17 calls
HF: Guess                           :      0.000u      0.000s      1.554w     17 calls
| SAD Guess                         :      0.000u      0.000s      1.526w     14 calls
HF: Form G                          :      0.000u      0.000s      0.059w    183 calls
| JK: D                             :      0.000u      0.000s      0.003w    183 calls
| JK: USO2AO                        :      0.000u      0.000s      0.001w    183 calls
| JK: JK                            :      0.000u      0.000s      0.048w    183 calls
| | DFH: compute_JK()               :      0.000u      0.000s      0.047w    183 calls
| | | DFH: Grabbing AOs             :      0.000u      0.000s      0.000w    183 calls
| | | DFH: compute_J                :      0.000u      0.000s      0.016w    183 calls
| | | DFH: compute_K                :      0.000u      0.000s      0.024w    183 calls
| JK: AO2USO                        :      0.000u      0.000s      0.000w    183 calls
HF: Form F                          :      0.000u      0.000s      0.003w    183 calls
HF: Form D                          :      0.000u      0.000s      0.002w    183 calls
HF: DIIS                            :      0.000u      0.000s      2.664w    169 calls
HF: Form C                          :      0.000u      0.000s      0.191w    169 calls
Grad: V T Perturb                   :      0.000u      0.000s      0.008w     17 calls
Grad: S                             :      0.000u      0.000s      0.002w     17 calls
Grad: JK                            :      0.000u      0.000s      1.206w     17 calls
| JKGrad: Amn                       :      0.000u      0.000s      0.647w     17 calls
| | Libint2ERI::Libint2ERI          :      0.000u      0.000s      0.049w     17 calls
| JKGrad: Awmn                      :      0.000u      0.000s      0.000w     17 calls
| JKGrad: AB                        :      0.000u      0.000s      0.174w     17 calls
| | Libint2ERI::Libint2ERI          :      0.000u      0.000s      0.002w     17 calls
| JKGrad: UV                        :      0.000u      0.000s      0.010w     17 calls
| JKGrad: ABx                       :      0.000u      0.000s      0.057w     17 calls
| | Libint2ERI::Libint2ERI          :      0.000u      0.000s      0.001w     17 calls
| JKGrad: Amnx                      :      0.000u      0.000s      0.196w     17 calls
| | Libint2ERI::Libint2ERI          :      0.000u      0.000s      0.061w     17 calls
Grad: XC                            :      0.000u      0.000s      0.000w     17 calls

**************************************************************************************

Host: LaComputadora

Timers On : Mon Dec  9 13:42:56 2024
Timers Off: Mon Dec  9 13:42:57 2024

Wall Time:        1.64 seconds

                                                       Time (seconds)
Module                                       User      System        Wall        Calls

--------------------------------------------------------------------------------------

**************************************************************************************

Host: LaComputadora

Timers On : Mon Dec  9 13:47:45 2024
Timers Off: Mon Dec  9 13:47:53 2024

Wall Time:        8.00 seconds

                                                       Time (seconds)
Module                                       User      System        Wall        Calls
DFH: sparsity prep                  :      0.000u      0.000s      0.024w      4 calls
Libint2ERI::Libint2ERI              :      0.000u      0.000s      0.053w     28 calls
DFH: initialize()                   :      0.000u      0.000s      0.345w      4 calls
DFH: AO Construction                :      0.000u      0.000s      0.011w      4 calls
DFH: AO-Met. Contraction            :      0.000u      0.000s      0.004w      4 calls
HF: Form core H                     :      0.000u      0.000s      0.070w      4 calls
HF: Form S/X                        :      0.000u      0.000s      0.002w      4 calls
HF: Guess                           :      0.000u      0.000s      0.152w      4 calls
SAD Guess                           :      0.000u      0.000s      0.150w      1 calls
HF: Form G                          :      0.000u      0.000s      0.012w     40 calls
JK: D                               :      0.000u      0.000s      0.001w     40 calls
JK: USO2AO                          :      0.000u      0.000s      0.000w     40 calls
JK: JK                              :      0.000u      0.000s      0.010w     40 calls
DFH: compute_JK()                   :      0.000u      0.000s      0.009w     40 calls
DFH: Grabbing AOs                   :      0.000u      0.000s      0.000w     40 calls
DFH: compute_J                      :      0.000u      0.000s      0.003w     40 calls
DFH: compute_K                      :      0.000u      0.000s      0.005w     40 calls
JK: AO2USO                          :      0.000u      0.000s      0.000w     40 calls
HF: Form F                          :      0.000u      0.000s      0.001w     40 calls
HF: Form D                          :      0.000u      0.000s      0.001w     40 calls
HF: DIIS                            :      0.000u      0.000s      1.240w     39 calls
HF: Form C                          :      0.000u      0.000s      0.043w     39 calls
Grad: V T Perturb                   :      0.000u      0.000s      0.003w      4 calls
Grad: S                             :      0.000u      0.000s      0.001w      4 calls
Grad: JK                            :      0.000u      0.000s      0.300w      4 calls
JKGrad: Amn                         :      0.000u      0.000s      0.160w      4 calls
JKGrad: Awmn                        :      0.000u      0.000s      0.000w      4 calls
JKGrad: AB                          :      0.000u      0.000s      0.042w      4 calls
JKGrad: UV                          :      0.000u      0.000s      0.002w      4 calls
JKGrad: ABx                         :      0.000u      0.000s      0.013w      4 calls
JKGrad: Amnx                        :      0.000u      0.000s      0.050w      4 calls
Grad: XC                            :      0.000u      0.000s      0.000w      4 calls

--------------------------------------------------------------------------------------
DFH: sparsity prep                  :      0.000u      0.000s      0.024w      4 calls
| Libint2ERI::Libint2ERI            :      0.000u      0.000s      0.017w      4 calls
DFH: initialize()                   :      0.000u      0.000s      0.345w      4 calls
| Libint2ERI::Libint2ERI            :      0.000u      0.000s      0.012w      8 calls
| DFH: AO Construction              :      0.000u      0.000s      0.011w      4 calls
| DFH: AO-Met. Contraction          :      0.000u      0.000s      0.004w      4 calls
HF: Form core H                     :      0.000u      0.000s      0.070w      4 calls
HF: Form S/X                        :      0.000u      0.000s      0.002w      4 calls
HF: Guess                           :      0.000u      0.000s      0.152w      4 calls
| SAD Guess                         :      0.000u      0.000s      0.150w      1 calls
HF: Form G                          :      0.000u      0.000s      0.012w     40 calls
| JK: D                             :      0.000u      0.000s      0.001w     40 calls
| JK: USO2AO                        :      0.000u      0.000s      0.000w     40 calls
| JK: JK                            :      0.000u      0.000s      0.010w     40 calls
| | DFH: compute_JK()               :      0.000u      0.000s      0.009w     40 calls
| | | DFH: Grabbing AOs             :      0.000u      0.000s      0.000w     40 calls
| | | DFH: compute_J                :      0.000u      0.000s      0.003w     40 calls
| | | DFH: compute_K                :      0.000u      0.000s      0.005w     40 calls
| JK: AO2USO                        :      0.000u      0.000s      0.000w     40 calls
HF: Form F                          :      0.000u      0.000s      0.001w     40 calls
HF: Form D                          :      0.000u      0.000s      0.001w     40 calls
HF: DIIS                            :      0.000u      0.000s      1.240w     39 calls
HF: Form C                          :      0.000u      0.000s      0.043w     39 calls
Grad: V T Perturb                   :      0.000u      0.000s      0.003w      4 calls
Grad: S                             :      0.000u      0.000s      0.001w      4 calls
Grad: JK                            :      0.000u      0.000s      0.300w      4 calls
| JKGrad: Amn                       :      0.000u      0.000s      0.160w      4 calls
| | Libint2ERI::Libint2ERI          :      0.000u      0.000s      0.010w      4 calls
| JKGrad: Awmn                      :      0.000u      0.000s      0.000w      4 calls
| JKGrad: AB                        :      0.000u      0.000s      0.042w      4 calls
| | Libint2ERI::Libint2ERI          :      0.000u      0.000s      0.000w      4 calls
| JKGrad: UV                        :      0.000u      0.000s      0.002w      4 calls
| JKGrad: ABx                       :      0.000u      0.000s      0.013w      4 calls
| | Libint2ERI::Libint2ERI          :      0.000u      0.000s      0.000w      4 calls
| JKGrad: Amnx                      :      0.000u      0.000s      0.050w      4 calls
| | Libint2ERI::Libint2ERI          :      0.000u      0.000s      0.013w      4 calls
Grad: XC                            :      0.000u      0.000s      0.000w      4 calls

**************************************************************************************

Host: LaComputadora

Timers On : Mon Dec  9 13:48:17 2024
Timers Off: Mon Dec  9 13:48:25 2024

Wall Time:        8.43 seconds

                                                       Time (seconds)
Module                                       User      System        Wall        Calls
DFH: sparsity prep                  :      0.000u      0.000s      0.029w      4 calls
Libint2ERI::Libint2ERI              :      0.000u      0.000s      0.057w     28 calls
DFH: initialize()                   :      0.000u      0.000s      0.302w      4 calls
DFH: AO Construction                :      0.000u      0.000s      0.012w      4 calls
DFH: AO-Met. Contraction            :      0.000u      0.000s      0.005w      4 calls
HF: Form core H                     :      0.000u      0.000s      0.082w      4 calls
HF: Form S/X                        :      0.000u      0.000s      0.003w      4 calls
HF: Guess                           :      0.000u      0.000s      0.130w      4 calls
SAD Guess                           :      0.000u      0.000s      0.128w      1 calls
HF: Form G                          :      0.000u      0.000s      0.015w     40 calls
JK: D                               :      0.000u      0.000s      0.001w     40 calls
JK: USO2AO                          :      0.000u      0.000s      0.000w     40 calls
JK: JK                              :      0.000u      0.000s      0.012w     40 calls
DFH: compute_JK()                   :      0.000u      0.000s      0.012w     40 calls
DFH: Grabbing AOs                   :      0.000u      0.000s      0.000w     40 calls
DFH: compute_J                      :      0.000u      0.000s      0.004w     40 calls
DFH: compute_K                      :      0.000u      0.000s      0.006w     40 calls
JK: AO2USO                          :      0.000u      0.000s      0.000w     40 calls
HF: Form F                          :      0.000u      0.000s      0.001w     40 calls
HF: Form D                          :      0.000u      0.000s      0.001w     40 calls
HF: DIIS                            :      0.000u      0.000s      1.423w     39 calls
HF: Form C                          :      0.000u      0.000s      0.045w     39 calls
Grad: V T Perturb                   :      0.000u      0.000s      0.002w      4 calls
Grad: S                             :      0.000u      0.000s      0.001w      4 calls
Grad: JK                            :      0.000u      0.000s      0.256w      4 calls
JKGrad: Amn                         :      0.000u      0.000s      0.119w      4 calls
JKGrad: Awmn                        :      0.000u      0.000s      0.000w      4 calls
JKGrad: AB                          :      0.000u      0.000s      0.039w      4 calls
JKGrad: UV                          :      0.000u      0.000s      0.002w      4 calls
JKGrad: ABx                         :      0.000u      0.000s      0.014w      4 calls
JKGrad: Amnx                        :      0.000u      0.000s      0.051w      4 calls
Grad: XC                            :      0.000u      0.000s      0.000w      4 calls

--------------------------------------------------------------------------------------
DFH: sparsity prep                  :      0.000u      0.000s      0.029w      4 calls
| Libint2ERI::Libint2ERI            :      0.000u      0.000s      0.020w      4 calls
DFH: initialize()                   :      0.000u      0.000s      0.302w      4 calls
| Libint2ERI::Libint2ERI            :      0.000u      0.000s      0.012w      8 calls
| DFH: AO Construction              :      0.000u      0.000s      0.012w      4 calls
| DFH: AO-Met. Contraction          :      0.000u      0.000s      0.005w      4 calls
HF: Form core H                     :      0.000u      0.000s      0.082w      4 calls
HF: Form S/X                        :      0.000u      0.000s      0.003w      4 calls
HF: Guess                           :      0.000u      0.000s      0.130w      4 calls
| SAD Guess                         :      0.000u      0.000s      0.128w      1 calls
HF: Form G                          :      0.000u      0.000s      0.015w     40 calls
| JK: D                             :      0.000u      0.000s      0.001w     40 calls
| JK: USO2AO                        :      0.000u      0.000s      0.000w     40 calls
| JK: JK                            :      0.000u      0.000s      0.012w     40 calls
| | DFH: compute_JK()               :      0.000u      0.000s      0.012w     40 calls
| | | DFH: Grabbing AOs             :      0.000u      0.000s      0.000w     40 calls
| | | DFH: compute_J                :      0.000u      0.000s      0.004w     40 calls
| | | DFH: compute_K                :      0.000u      0.000s      0.006w     40 calls
| JK: AO2USO                        :      0.000u      0.000s      0.000w     40 calls
HF: Form F                          :      0.000u      0.000s      0.001w     40 calls
HF: Form D                          :      0.000u      0.000s      0.001w     40 calls
HF: DIIS                            :      0.000u      0.000s      1.423w     39 calls
HF: Form C                          :      0.000u      0.000s      0.045w     39 calls
Grad: V T Perturb                   :      0.000u      0.000s      0.002w      4 calls
Grad: S                             :      0.000u      0.000s      0.001w      4 calls
Grad: JK                            :      0.000u      0.000s      0.256w      4 calls
| JKGrad: Amn                       :      0.000u      0.000s      0.119w      4 calls
| | Libint2ERI::Libint2ERI          :      0.000u      0.000s      0.010w      4 calls
| JKGrad: Awmn                      :      0.000u      0.000s      0.000w      4 calls
| JKGrad: AB                        :      0.000u      0.000s      0.039w      4 calls
| | Libint2ERI::Libint2ERI          :      0.000u      0.000s      0.000w      4 calls
| JKGrad: UV                        :      0.000u      0.000s      0.002w      4 calls
| JKGrad: ABx                       :      0.000u      0.000s      0.014w      4 calls
| | Libint2ERI::Libint2ERI          :      0.000u      0.000s      0.000w      4 calls
| JKGrad: Amnx                      :      0.000u      0.000s      0.051w      4 calls
| | Libint2ERI::Libint2ERI          :      0.000u      0.000s      0.014w      4 calls
Grad: XC                            :      0.000u      0.000s      0.000w      4 calls

**************************************************************************************

Host: LaComputadora

Timers On : Mon Dec  9 13:48:35 2024
Timers Off: Mon Dec  9 13:48:37 2024

Wall Time:        1.71 seconds

                                                       Time (seconds)
Module                                       User      System        Wall        Calls

--------------------------------------------------------------------------------------

**************************************************************************************

Host: LaComputadora

Timers On : Mon Dec  9 13:48:56 2024
Timers Off: Mon Dec  9 13:48:57 2024

Wall Time:        1.55 seconds

                                                       Time (seconds)
Module                                       User      System        Wall        Calls

--------------------------------------------------------------------------------------

**************************************************************************************
