[Molden Format]
[Atoms] (AU)
O    1    8          -0.0000000002         0.0000000000         0.1212603293
H    2    1          -1.4249768323         0.0000000000        -0.9622447153
H    3    1           1.4249768354         0.0000000000        -0.9622447068
[GTO]
  1 0
 s    6  1.00
     5484.6717000000         0.0018311000
      825.2349500000         0.0139501000
      188.0469600000         0.0684451000
       52.9645000000         0.2327143000
       16.8975700000         0.4701930000
        5.7996353000         0.3585209000
 s    3  1.00
       15.5396160000        -0.1107775000
        3.5999336000        -0.1480263000
        1.0137618000         1.1307670000
 p    3  1.00
       15.5396160000         0.0708743000
        3.5999336000         0.3397528000
        1.0137618000         0.7271586000
 s    1  1.00
        0.2700058000         1.0000000000
 p    1  1.00
        0.2700058000         1.0000000000
 d    1  1.00
        0.8000000000         1.0000000000

  2 0
 s    3  1.00
       18.7311370000         0.0334946000
        2.8253937000         0.2347269500
        0.6401217000         0.8137573300
 s    1  1.00
        0.1612778000         1.0000000000

  3 0
 s    3  1.00
       18.7311370000         0.0334946000
        2.8253937000         0.2347269500
        0.6401217000         0.8137573300
 s    1  1.00
        0.1612778000         1.0000000000

[MO]
 Sym= A
 Ene=        -4.6514653388e-16
 Spin= Alpha
 Occup=        -9.3029306777e-16
  1        -8.9871809907e-03
  2        -2.7703535579e-01
  3         1.0827549889e-01
  4         2.5541472109e-01
  5         3.4417197161e-03
  6         7.6762526745e-01
  7         1.4423506740e-01
  8        -2.6582078650e-01
  9        -2.5073103172e-02
 10         2.7122838637e-01
 11        -3.8809333281e-01
 12        -1.1244800286e-01
 13         4.2651710092e-01
 14        -7.2930587072e-01
 15         2.2142055278e-01
 16         7.9038651898e-01
 17        -8.3419524407e-01
 18        -3.6338524680e-01
 19        -4.6493146459e-02
 Sym= A
 Ene=        -3.5077807996e-16
 Spin= Alpha
 Occup=        -7.0155615993e-16
  1         2.0312728504e-02
  2         5.0560935026e-01
  3         1.5563209462e-01
  4        -8.5633967027e-02
  5        -5.2137277327e-02
  6        -1.1934911574e+00
  7         1.1579710481e+00
  8         9.7704648355e-02
  9         1.6022317470e-01
 10         7.5171927252e-02
 11         1.2198608064e-01
 12         2.7496462574e-01
 13         1.9580703081e-01
 14        -5.4801029121e-02
 15         1.3496313597e-01
 16         7.2810039653e-01
 17         7.3912402052e-01
 18        -8.7136490677e-01
 19        -4.4224663882e-02
 Sym= A
 Ene=        -3.0174960107e-16
 Spin= Alpha
 Occup=        -6.0349920214e-16
  1         3.5842247045e-02
  2         1.2807436677e-01
  3         3.3168968814e-01
  4        -5.3157608985e-01
  5        -9.6448674439e-02
  6        -5.7445068695e-01
  7        -1.1767385440e-01
  8         5.6770499698e-01
  9         4.9350935483e-01
 10         7.4545229171e-02
 11         5.2631254658e-02
 12         1.9754092739e-03
 13        -5.2454739023e-01
 14        -3.2755935065e-01
 15        -1.0805208240e-01
 16         8.7019845044e-01
 17        -3.1780656571e-01
 18         1.4793644225e-01
 19         1.6403894673e-01
 Sym= A
 Ene=        -1.6217487780e-16
 Spin= Alpha
 Occup=        -3.2434975559e-16
  1        -4.5753644555e-02
  2        -5.8088797859e-01
  3         4.6952436885e-01
  4         1.0722061033e-02
  5        -4.7511483694e-02
  6         1.5446913881e+00
  7         9.9894082030e-02
  8        -1.0092723695e-02
  9        -3.2281875305e-01
 10        -1.6769295221e-01
 11        -3.4549242197e-01
 12        -5.2265733501e-02
 13         1.1256519925e-02
 14        -2.9949338132e-01
 15         3.5285298708e-02
 16        -4.5457756081e-01
 17         7.6764210747e-01
 18        -2.0266537830e-01
 19        -1.2307589829e+00
 Sym= A
 Ene=        -1.2780661366e-16
 Spin= Alpha
 Occup=        -2.5561322733e-16
  1         3.7931577957e-03
  2         2.6463958721e-01
  3         4.4006479958e-01
  4        -2.5808551511e-01
  5        -2.2247355879e-02
  6        -5.9789310582e-01
  7        -7.9549822841e-01
  8         2.8048985170e-01
  9        -7.3332221093e-02
 10         4.8471024157e-01
 11         4.1470287248e-01
 12        -6.4046053907e-01
 13         2.9087723662e-01
 14         9.5329301363e-02
 15         6.6095232952e-02
 16        -3.1264694112e-01
 17        -1.3348075949e-01
 18        -2.0217926323e-01
 19         7.5211938900e-01
 Sym= A
 Ene=        -9.4580559492e-17
 Spin= Alpha
 Occup=        -1.8916111898e-16
  1        -1.1808277587e-01
  2        -9.1354333645e-01
  3        -1.8128168342e-01
  4        -1.6895840434e-01
  5         2.1537116658e-01
  6         3.1469891144e+00
  7         4.5147069959e-01
  8         1.8734933224e-01
  9        -1.2300272611e+00
 10        -1.2235660908e-01
 11        -3.8988892345e-01
 12        -4.0755782306e-01
 13        -2.7029300879e-01
 14        -2.5933584724e-01
 15         1.3404295637e-01
 16        -2.4210588330e-01
 17        -1.0620415356e+00
 18        -1.0849431043e+00
 19        -5.7987634286e-01
 Sym= A
 Ene=        -5.4768465456e-18
 Spin= Alpha
 Occup=        -1.0953693091e-17
  1         2.6927479595e-02
  2         1.1505096216e-01
  3        -1.5353511951e-01
  4        -7.5398964537e-02
  5         1.5886152420e-01
  6        -5.1116752891e-01
  7         4.3891396212e-01
  8         8.7967999483e-02
  9         2.3633923982e-01
 10        -7.8236964815e-01
 11         9.3295116531e-01
 12        -1.1894288891e-01
 13         1.5162875681e-01
 14        -4.2339711236e-01
 15         1.6614945873e-01
 16         8.1578896397e-01
 17         1.2493013678e-01
 18         4.7171215704e-01
 19        -3.5449354840e-01
 Sym= A
 Ene=        -4.3309290759e-19
 Spin= Alpha
 Occup=        -8.6618581519e-19
  1         4.6793186775e-01
  2        -3.4600789146e-01
  3         2.4962599304e-03
  4         6.0670408667e-04
  5        -1.1096037728e-01
  6        -3.6210177472e+00
  7        -1.7202614008e-03
  8        -6.9546436684e-04
  9         3.1657874614e-01
 10         1.5302542949e+00
 11         1.5526672329e+00
 12         1.5422052367e+00
 13        -5.9720049923e-05
 14         1.7764702992e-03
 15        -1.0352070454e-03
 16        -1.3112935627e-01
 17         5.5548885865e-01
 18        -1.4176071268e-01
 19         5.7259299185e-01
 Sym= A
 Ene=         7.0147596400e-19
 Spin= Alpha
 Occup=         1.4029519280e-18
  1         9.6218737489e-03
  2         6.9939378465e-02
  3        -3.5173681576e-01
  4        -5.8052289048e-01
  5        -6.0817453266e-02
  6        -3.0896914115e-01
  7         1.1407102853e-01
  8         6.4447137843e-01
  9         8.0505210664e-02
 10         6.8354883659e-02
 11        -3.0023860177e-01
 12         3.4085843134e-01
 13         2.5889054843e-01
 14        -2.1771078373e-02
 15         4.7906526479e-01
 16        -4.6519488799e-01
 17         4.4361295913e-01
 18         8.8475249633e-02
 19         6.8902541341e-02
 Sym= A
 Ene=         5.5473493861e-17
 Spin= Alpha
 Occup=         1.1094698772e-16
  1         1.3105339016e-02
  2         5.2277389869e-01
  3         4.9356652252e-01
  4         1.3646318080e-01
  5         1.4643563968e-01
  6        -1.1802196195e+00
  7        -9.4320487483e-01
  8        -1.4038818009e-01
  9        -1.5289865547e-01
 10        -1.8828805162e-01
 11         7.7142499919e-02
 12         6.1861324294e-01
 13        -1.4588290764e-01
 14        -2.7027630564e-01
 15         1.5815157834e-01
 16        -4.8174401722e-02
 17        -4.6486031218e-01
 18        -5.0313064901e-01
 19         1.3669621673e+00
 Sym= A
 Ene=         8.2722359206e-17
 Spin= Alpha
 Occup=         1.6544471841e-16
  1         5.1212199042e-03
  2        -9.5450653643e-01
  3         1.2808944946e-01
  4        -5.9548301309e-03
  5        -2.5844389750e-01
  6         1.3320486600e+00
  7        -2.0585093489e-01
  8         5.4928177937e-03
  9         4.9178330635e-01
 10        -4.9558787473e-01
 11        -2.0854630574e-01
 12        -2.6672888236e-01
 13         7.9885950033e-02
 14         4.2668265968e-02
 15        -2.2338980166e-02
 16         2.5484127695e-01
 17        -2.9165302606e-01
 18        -2.2832785623e-01
 19         7.5687320187e-01
 Sym= A
 Ene=         1.2550379522e-16
 Spin= Alpha
 Occup=         2.5100759045e-16
  1         4.7197348858e-02
  2         3.7617488441e-01
  3        -3.6508062686e-01
  4         2.5981967320e-01
  5        -1.2956510751e-01
  6        -1.4329832043e+00
  7         8.4615315464e-01
  8        -2.6903608969e-01
  9         4.0403776176e-01
 10         4.1024767070e-01
 11         1.8671583624e-01
 12        -1.8582555795e-01
 13        -4.1341182245e-01
 14        -5.4625610345e-01
 15         2.5861434587e-01
 16         7.7972411065e-02
 17         1.1765096126e+00
 18        -3.9855787409e-01
 19         2.8724273077e-01
 Sym= A
 Ene=         1.4738039190e-16
 Spin= Alpha
 Occup=         2.9476078380e-16
  1        -4.2399135063e-02
  2         3.9070967179e-01
  3        -2.8811430054e-02
  4         4.0220048155e-02
  5        -9.2903350043e-01
  6        -2.2299315208e-01
  7        -7.7450319827e-02
  8        -4.2168607232e-02
  9         6.6600072421e-01
 10        -1.0671288851e-01
 11         1.9514124699e-01
 12         7.1991856552e-02
 13        -4.6788239629e-03
 14        -5.9836258051e-02
 15         2.7312025394e-02
 16        -1.7426106541e-01
 17        -1.8335269197e-01
 18        -1.8687240478e-01
 19         6.8631166741e-02
 Sym= A
 Ene=         2.3867067528e-16
 Spin= Alpha
 Occup=         4.7734135057e-16
  1         1.7483977533e-03
  2         1.7934802327e-01
  3        -2.4835564864e-01
  4        -2.1563997327e-01
  5        -3.6613642685e-03
  6        -4.2560013945e-01
  7         5.5768087599e-01
  8         2.0177985573e-01
  9        -7.2189668924e-02
 10         7.7825707628e-02
 11        -4.3511221026e-02
 12         1.5268315362e-01
 13         2.4122148424e-01
 14        -5.9527641190e-01
 15        -7.3897689439e-01
 16         3.3836444263e-02
 17         3.9276464113e-01
 18        -5.9776046332e-01
 19         1.9421937140e-01
 Sym= A
 Ene=         1.0000000000e+00
 Spin= Alpha
 Occup=         2.0000000000e+00
  1        -6.1562119718e-03
  2         1.5006617897e-01
  3        -4.4126203773e-02
  4        -6.0117063834e-01
  5        -4.5874423910e-02
  6         1.3158899729e-01
  7        -2.6344811612e-02
  8        -4.8133870724e-01
  9        -2.7099966642e-02
 10         8.4049501105e-03
 11        -8.9126335018e-04
 12         7.8885336582e-03
 13        -1.2389439633e-10
 14         4.4106094096e-03
 15         3.2113605314e-02
 16         6.6868972505e-02
 17         1.2108166872e-02
 18         2.6557761287e-02
 19        -6.4899342472e-03
 Sym= A
 Ene=         1.0000000000e+00
 Spin= Alpha
 Occup=         2.0000000000e+00
  1         1.6266069766e-01
  2        -4.3811241028e-01
  3        -4.1814914636e-03
  4        -2.0839522037e-01
  5         1.2659164470e-01
  6        -3.8867048512e-01
  7        -2.4964893518e-03
  8        -1.6685559735e-01
  9         7.3962190528e-02
 10        -2.5206098245e-02
 11         1.8801333330e-03
 12        -2.3052208791e-02
 13        -4.2947303198e-11
 14         4.1795854738e-04
 15         1.1132150224e-02
 16        -1.3283457533e-01
 17        -6.2658143298e-03
 18        -1.3665454997e-01
 19        -8.0282090032e-03
 Sym= A
 Ene=         1.0000000000e+00
 Spin= Alpha
 Occup=         2.0000000000e+00
  1        -9.8216844812e-02
  2        -3.0966463760e-02
  3        -5.0098546412e-01
  4         5.0506430596e-02
  5        -5.8120179766e-02
  6        -4.5675965968e-02
  7        -2.9910498791e-01
  8         4.0438934406e-02
  9        -4.2778665398e-02
 10        -2.3108173207e-04
 11        -8.2069039673e-04
 12         4.9827974698e-03
 13         1.0408641557e-11
 14         5.0075714820e-02
 15        -2.6979753743e-03
 16         2.4093323582e-01
 17         1.1452900844e-01
 18        -2.1673883009e-01
 19        -9.6623945397e-02
 Sym= A
 Ene=         1.0000000000e+00
 Spin= Alpha
 Occup=         2.0000000000e+00
  1         1.8198825334e-01
  2         1.8701737009e-01
  3        -6.8462577163e-02
  4         1.2617635305e-02
  5         5.2632796660e-01
  6         3.3462096845e-01
  7        -4.0874436120e-02
  8         1.0102549724e-02
  9         3.8341700479e-01
 10         1.0743623082e-03
 11         1.0200074468e-02
 12        -4.4057613867e-02
 13         2.6020422797e-12
 14         6.8431376544e-03
 15        -6.7401455487e-04
 16        -9.5046060778e-02
 17        -6.4449555522e-02
 18        -1.5758960892e-01
 19        -9.3304833810e-02
 Sym= A
 Ene=         1.0000000000e+00
 Spin= Alpha
 Occup=         2.0000000000e+00
  1         9.8450874336e-01
  2        -5.6350098692e-02
  3        -3.6909080686e-02
  4         3.3378168675e-02
  5        -1.4688746308e-01
  6        -1.1399143182e-01
  7        -2.2035948966e-02
  8         2.6724865680e-02
  9        -1.0652338440e-01
 10        -6.0490428810e-03
 11        -6.9279185540e-03
 12         7.2689510308e-03
 13         6.8782156035e-12
 14         3.6892259928e-03
 15        -1.7830101249e-03
 16         4.6382145236e-02
 17         3.0021366082e-02
 18         1.2664090337e-02
 19         1.4465103327e-02
